<?xml version="1.0"?>
<VTKFile type="UnstructuredGrid"  version="0.1"  >
<UnstructuredGrid>
<Piece  NumberOfPoints="441" NumberOfCells="800">
<Points>
<DataArray  type="Float64"  NumberOfComponents="3"  format="ascii">0 0 0  0.0015 0 0  0.003 0 0  0.0045 0 0  0.006 0 0  0.0075 0 0  0.008999999999999999 0 0  0.0105 0 0  0.012 0 0  0.0135 0 0  0.015 0 0  0.0165 0 0  0.018 0 0  0.0195 0 0  0.021 0 0  0.0225 0 0  0.024 0 0  0.0255 0 0  0.027 0 0  0.0285 0 0  0.03 0 0  0 0.004 0  0.0015 0.004 0  0.003 0.004 0  0.0045 0.004 0  0.006 0.004 0  0.0075 0.004 0  0.008999999999999999 0.004 0  0.0105 0.004 0  0.012 0.004 0  0.0135 0.004 0  0.015 0.004 0  0.0165 0.004 0  0.018 0.004 0  0.0195 0.004 0  0.021 0.004 0  0.0225 0.004 0  0.024 0.004 0  0.0255 0.004 0  0.027 0.004 0  0.0285 0.004 0  0.03 0.004 0  0 0.008 0  0.0015 0.008 0  0.003 0.008 0  0.0045 0.008 0  0.006 0.008 0  0.0075 0.008 0  0.008999999999999999 0.008 0  0.0105 0.008 0  0.012 0.008 0  0.0135 0.008 0  0.015 0.008 0  0.0165 0.008 0  0.018 0.008 0  0.0195 0.008 0  0.021 0.008 0  0.0225 0.008 0  0.024 0.008 0  0.0255 0.008 0  0.027 0.008 0  0.0285 0.008 0  0.03 0.008 0  0 0.012 0  0.0015 0.012 0  0.003 0.012 0  0.0045 0.012 0  0.006 0.012 0  0.0075 0.012 0  0.008999999999999999 0.012 0  0.0105 0.012 0  0.012 0.012 0  0.0135 0.012 0  0.015 0.012 0  0.0165 0.012 0  0.018 0.012 0  0.0195 0.012 0  0.021 0.012 0  0.0225 0.012 0  0.024 0.012 0  0.0255 0.012 0  0.027 0.012 0  0.0285 0.012 0  0.03 0.012 0  0 0.016 0  0.0015 0.016 0  0.003 0.016 0  0.0045 0.016 0  0.006 0.016 0  0.0075 0.016 0  0.008999999999999999 0.016 0  0.0105 0.016 0  0.012 0.016 0  0.0135 0.016 0  0.015 0.016 0  0.0165 0.016 0  0.018 0.016 0  0.0195 0.016 0  0.021 0.016 0  0.0225 0.016 0  0.024 0.016 0  0.0255 0.016 0  0.027 0.016 0  0.0285 0.016 0  0.03 0.016 0  0 0.02 0  0.0015 0.02 0  0.003 0.02 0  0.0045 0.02 0  0.006 0.02 0  0.0075 0.02 0  0.008999999999999999 0.02 0  0.0105 0.02 0  0.012 0.02 0  0.0135 0.02 0  0.015 0.02 0  0.0165 0.02 0  0.018 0.02 0  0.0195 0.02 0  0.021 0.02 0  0.0225 0.02 0  0.024 0.02 0  0.0255 0.02 0  0.027 0.02 0  0.0285 0.02 0  0.03 0.02 0  0 0.024 0  0.0015 0.024 0  0.003 0.024 0  0.0045 0.024 0  0.006 0.024 0  0.0075 0.024 0  0.008999999999999999 0.024 0  0.0105 0.024 0  0.012 0.024 0  0.0135 0.024 0  0.015 0.024 0  0.0165 0.024 0  0.018 0.024 0  0.0195 0.024 0  0.021 0.024 0  0.0225 0.024 0  0.024 0.024 0  0.0255 0.024 0  0.027 0.024 0  0.0285 0.024 0  0.03 0.024 0  0 0.028 0  0.0015 0.028 0  0.003 0.028 0  0.0045 0.028 0  0.006 0.028 0  0.0075 0.028 0  0.008999999999999999 0.028 0  0.0105 0.028 0  0.012 0.028 0  0.0135 0.028 0  0.015 0.028 0  0.0165 0.028 0  0.018 0.028 0  0.0195 0.028 0  0.021 0.028 0  0.0225 0.028 0  0.024 0.028 0  0.0255 0.028 0  0.027 0.028 0  0.0285 0.028 0  0.03 0.028 0  0 0.032 0  0.0015 0.032 0  0.003 0.032 0  0.0045 0.032 0  0.006 0.032 0  0.0075 0.032 0  0.008999999999999999 0.032 0  0.0105 0.032 0  0.012 0.032 0  0.0135 0.032 0  0.015 0.032 0  0.0165 0.032 0  0.018 0.032 0  0.0195 0.032 0  0.021 0.032 0  0.0225 0.032 0  0.024 0.032 0  0.0255 0.032 0  0.027 0.032 0  0.0285 0.032 0  0.03 0.032 0  0 0.036 0  0.0015 0.036 0  0.003 0.036 0  0.0045 0.036 0  0.006 0.036 0  0.0075 0.036 0  0.008999999999999999 0.036 0  0.0105 0.036 0  0.012 0.036 0  0.0135 0.036 0  0.015 0.036 0  0.0165 0.036 0  0.018 0.036 0  0.0195 0.036 0  0.021 0.036 0  0.0225 0.036 0  0.024 0.036 0  0.0255 0.036 0  0.027 0.036 0  0.0285 0.036 0  0.03 0.036 0  0 0.04 0  0.0015 0.04 0  0.003 0.04 0  0.0045 0.04 0  0.006 0.04 0  0.0075 0.04 0  0.008999999999999999 0.04 0  0.0105 0.04 0  0.012 0.04 0  0.0135 0.04 0  0.015 0.04 0  0.0165 0.04 0  0.018 0.04 0  0.0195 0.04 0  0.021 0.04 0  0.0225 0.04 0  0.024 0.04 0  0.0255 0.04 0  0.027 0.04 0  0.0285 0.04 0  0.03 0.04 0  0 0.044 0  0.0015 0.044 0  0.003 0.044 0  0.0045 0.044 0  0.006 0.044 0  0.0075 0.044 0  0.008999999999999999 0.044 0  0.0105 0.044 0  0.012 0.044 0  0.0135 0.044 0  0.015 0.044 0  0.0165 0.044 0  0.018 0.044 0  0.0195 0.044 0  0.021 0.044 0  0.0225 0.044 0  0.024 0.044 0  0.0255 0.044 0  0.027 0.044 0  0.0285 0.044 0  0.03 0.044 0  0 0.048 0  0.0015 0.048 0  0.003 0.048 0  0.0045 0.048 0  0.006 0.048 0  0.0075 0.048 0  0.008999999999999999 0.048 0  0.0105 0.048 0  0.012 0.048 0  0.0135 0.048 0  0.015 0.048 0  0.0165 0.048 0  0.018 0.048 0  0.0195 0.048 0  0.021 0.048 0  0.0225 0.048 0  0.024 0.048 0  0.0255 0.048 0  0.027 0.048 0  0.0285 0.048 0  0.03 0.048 0  0 0.052 0  0.0015 0.052 0  0.003 0.052 0  0.0045 0.052 0  0.006 0.052 0  0.0075 0.052 0  0.008999999999999999 0.052 0  0.0105 0.052 0  0.012 0.052 0  0.0135 0.052 0  0.015 0.052 0  0.0165 0.052 0  0.018 0.052 0  0.0195 0.052 0  0.021 0.052 0  0.0225 0.052 0  0.024 0.052 0  0.0255 0.052 0  0.027 0.052 0  0.0285 0.052 0  0.03 0.052 0  0 0.05600000000000001 0  0.0015 0.05600000000000001 0  0.003 0.05600000000000001 0  0.0045 0.05600000000000001 0  0.006 0.05600000000000001 0  0.0075 0.05600000000000001 0  0.008999999999999999 0.05600000000000001 0  0.0105 0.05600000000000001 0  0.012 0.05600000000000001 0  0.0135 0.05600000000000001 0  0.015 0.05600000000000001 0  0.0165 0.05600000000000001 0  0.018 0.05600000000000001 0  0.0195 0.05600000000000001 0  0.021 0.05600000000000001 0  0.0225 0.05600000000000001 0  0.024 0.05600000000000001 0  0.0255 0.05600000000000001 0  0.027 0.05600000000000001 0  0.0285 0.05600000000000001 0  0.03 0.05600000000000001 0  0 0.06 0  0.0015 0.06 0  0.003 0.06 0  0.0045 0.06 0  0.006 0.06 0  0.0075 0.06 0  0.008999999999999999 0.06 0  0.0105 0.06 0  0.012 0.06 0  0.0135 0.06 0  0.015 0.06 0  0.0165 0.06 0  0.018 0.06 0  0.0195 0.06 0  0.021 0.06 0  0.0225 0.06 0  0.024 0.06 0  0.0255 0.06 0  0.027 0.06 0  0.0285 0.06 0  0.03 0.06 0  0 0.064 0  0.0015 0.064 0  0.003 0.064 0  0.0045 0.064 0  0.006 0.064 0  0.0075 0.064 0  0.008999999999999999 0.064 0  0.0105 0.064 0  0.012 0.064 0  0.0135 0.064 0  0.015 0.064 0  0.0165 0.064 0  0.018 0.064 0  0.0195 0.064 0  0.021 0.064 0  0.0225 0.064 0  0.024 0.064 0  0.0255 0.064 0  0.027 0.064 0  0.0285 0.064 0  0.03 0.064 0  0 0.068 0  0.0015 0.068 0  0.003 0.068 0  0.0045 0.068 0  0.006 0.068 0  0.0075 0.068 0  0.008999999999999999 0.068 0  0.0105 0.068 0  0.012 0.068 0  0.0135 0.068 0  0.015 0.068 0  0.0165 0.068 0  0.018 0.068 0  0.0195 0.068 0  0.021 0.068 0  0.0225 0.068 0  0.024 0.068 0  0.0255 0.068 0  0.027 0.068 0  0.0285 0.068 0  0.03 0.068 0  0 0.07199999999999999 0  0.0015 0.07199999999999999 0  0.003 0.07199999999999999 0  0.0045 0.07199999999999999 0  0.006 0.07199999999999999 0  0.0075 0.07199999999999999 0  0.008999999999999999 0.07199999999999999 0  0.0105 0.07199999999999999 0  0.012 0.07199999999999999 0  0.0135 0.07199999999999999 0  0.015 0.07199999999999999 0  0.0165 0.07199999999999999 0  0.018 0.07199999999999999 0  0.0195 0.07199999999999999 0  0.021 0.07199999999999999 0  0.0225 0.07199999999999999 0  0.024 0.07199999999999999 0  0.0255 0.07199999999999999 0  0.027 0.07199999999999999 0  0.0285 0.07199999999999999 0  0.03 0.07199999999999999 0  0 0.076 0  0.0015 0.076 0  0.003 0.076 0  0.0045 0.076 0  0.006 0.076 0  0.0075 0.076 0  0.008999999999999999 0.076 0  0.0105 0.076 0  0.012 0.076 0  0.0135 0.076 0  0.015 0.076 0  0.0165 0.076 0  0.018 0.076 0  0.0195 0.076 0  0.021 0.076 0  0.0225 0.076 0  0.024 0.076 0  0.0255 0.076 0  0.027 0.076 0  0.0285 0.076 0  0.03 0.076 0  0 0.08 0  0.0015 0.08 0  0.003 0.08 0  0.0045 0.08 0  0.006 0.08 0  0.0075 0.08 0  0.008999999999999999 0.08 0  0.0105 0.08 0  0.012 0.08 0  0.0135 0.08 0  0.015 0.08 0  0.0165 0.08 0  0.018 0.08 0  0.0195 0.08 0  0.021 0.08 0  0.0225 0.08 0  0.024 0.08 0  0.0255 0.08 0  0.027 0.08 0  0.0285 0.08 0  0.03 0.08 0  </DataArray>
</Points>
<Cells>
[...]
<PointData  Scalars="f_39"> 
<DataArray  type="Float64"  Name="f_39"  format="ascii">3.7777294121663481e+01  3.7773957370983048e+01  3.7765511655605735e+01  3.7751947344696099e+01  3.7733341912213618e+01  3.7709841064079463e+01  3.7681647782800788e+01  3.7649015299268079e+01  3.7612241945327426e+01  3.7571666838323132e+01  3.7527665865092651e+01  3.7480647703094739e+01  3.7431049760143267e+01  3.7379333993195793e+01  3.7325982613412329e+01  3.7271493717917906e+01  3.7216376921470470e+01  3.7161149106849521e+01  3.7106330490665428e+01  3.7052441345934241e+01  3.7000000000000000e+01  3.7776871367929708e+01  3.7774131003388781e+01  3.7766014383559614e+01  3.7752633821987324e+01  3.7734130583147781e+01  3.7710684110119580e+01  3.7682515480633548e+01  3.7649887815030269e+01  3.7613104989656144e+01  3.7572509336356703e+01  3.7528478679650732e+01  3.7481422903021084e+01  3.7431780157938782e+01  3.7380012790835039e+01  3.7326603042778046e+01  3.7272048562673639e+01  3.7216857759774143e+01  3.7161544997175298e+01  3.7106625582215678e+01  3.7052610418469911e+01  3.7000000000000000e+01  3.7779162042787007e+01  3.7776462268108055e+01  3.7768398792981259e+01  3.7755054769363291e+01  3.7736561547154672e+01  3.7713096732042132e+01  3.7684882699681317e+01  3.7652184906337041e+01  3.7615309764308151e+01  3.7574602033237717e+01  3.7530441753826793e+01  3.7483240778708961e+01  3.7433438962274003e+01  3.7381500068748835e+01  3.7327907451749986e+01  3.7273159551849460e+01  3.7217765252941987e+01  3.7162239134616875e+01  3.7107096658873793e+01  3.7052849341818309e+01  3.7000000000000000e+01  3.7783424820909367e+01  3.7780718399961664e+01  3.7772632793756124e+01  3.7759244966776627e+01  3.7740681610229409e+01  3.7717117663666720e+01  3.7688774599220537e+01  3.7655918359363419e+01  3.7618856866656714e+01  3.7577937082217716e+01  3.7533541642978214e+01  3.7486085140770967e+01  3.7436010115900828e+01  3.7383782830153770e+01  3.7329888871560563e+01  3.7274828633719267e+01  3.7219112707534208e+01  3.7163257222364599e+01  3.7107779176062898e+01  3.7053191798543104e+01  3.7000000000000000e+01  3.7789463770653420e+01  3.7786739404677569e+01  3.7778601618793822e+01  3.7765125340180212e+01  3.7746434984977981e+01  3.7722703821833555e+01  3.7694152908836422e+01  3.7661049366314273e+01  3.7623703844191027e+01  3.7582467222695250e+01  3.7537726721728518e+01  3.7489901650896421e+01  3.7439439001671538e+01  3.7386808983293314e+01  3.7332500528603788e+01  3.7277016773983341e+01  3.7220870517110605e+01  3.7164579663326201e+01  3.7108662679860174e+01  3.7053634084486902e+01  3.7000000000000000e+01  3.7797131453692614e+01  3.7794385367452271e+01  3.7786183168698599e+01  3.7772595573902898e+01  3.7753741329039478e+01  3.7729788532190696e+01  3.7700955970362770e+01  3.7667512842437432e+01  3.7629776079698559e+01  3.7588105666863619e+01  3.7542898834773162e+01  3.7494584126382769e+01  3.7443616146297721e+01  3.7390470955204670e+01  3.7335641730744427e+01  3.7279634507432498e+01  3.7222963911871958e+01  3.7166148866940730e+01  3.7109708270967090e+01  3.7054156676105350e+01  3.7000000000000000e+01  3.7806232179516819e+01  3.7803472855746620e+01  3.7795227791333616e+01  3.7781553150805834e+01  3.7762545193075027e+01  3.7738346720154041e+01  3.7709162234852833e+01  3.7675264745188713e+01  3.7636990300238338e+01  3.7594726103020257e+01  3.7548896090666020e+01  3.7499947945595849e+01  3.7448347586551790e+01  3.7394577381968347e+01  3.7339133562907755e+01  3.7282523084414343e+01  3.7225260094902765e+01  3.7167862128770203e+01  3.7110846114246655e+01  3.7054724275496440e+01  3.7000000000000000e+01  3.7816362744192233e+01  3.7813634474720914e+01  3.7805472953375016e+01  3.7791899436910683e+01  3.7772936559962169e+01  3.7748585643233973e+01  3.7718975419315939e+01  3.7684403525938848e+01  3.7645287411938376e+01  3.7602118613980373e+01  3.7555412786342423e+01  3.7505647447891867e+01  3.7453282960634375e+01  3.7398795712808706e+01  3.7342675699591389e+01  3.7285423583490875e+01  3.7227547312174053e+01  3.7169558393814995e+01  3.7111967930712382e+01  3.7055282504803266e+01  3.7000000000000000e+01  3.7826437632049291e+01  3.7823854717080742e+01  3.7816141649772938e+01  3.7803366870679305e+01  3.7785644844344866e+01  3.7761783381016258e+01  3.7731530696836401e+01  3.7695535493596509e+01  3.7654591825476324e+01  3.7609616032989678e+01  3.7561624995650739e+01  3.7510948974919216e+01  3.7457778659939962e+01  3.7402571328314053e+01  3.7345800413632581e+01  3.7287952404024402e+01  3.7229523117823589e+01  3.7171013587898706e+01  3.7112925712600315e+01  3.7055757786853526e+01  3.7000000000000000e+01  3.7833785001940484e+01  3.7831349947738275e+01  3.7824088062258319e+01  3.7812110304637564e+01  3.7795609205740377e+01  3.7772744771442156e+01  3.7742188018460674e+01  3.7704997008780886e+01  3.7662364330587017e+01  3.7615623548302089e+01  3.7566250161538676e+01  3.7514777675683483e+01  3.7460945172974291e+01  3.7405176777013345e+01  3.7347921189676953e+01  3.7289646127144628e+01  3.7230832856000944e+01  3.7171970832592933e+01  3.7113552445493561e+01  3.7056067863974661e+01  3.7000000000000000e+01  3.7835898834813044e+01  3.7833509844795564e+01  3.7826375142520078e+01  3.7814594177704500e+01  3.7798327575042407e+01  3.7775636330816518e+01  3.7745049149262705e+01  3.7707632226124502e+01  3.7664639397693513e+01  3.7617487179433780e+01  3.7567728577291547e+01  3.7515942083098842e+01  3.7461866699273905e+01  3.7405906190387881e+01  3.7348495253988418e+01  3.7290091672950723e+01  3.7231169429051882e+01  3.7172212433629099e+01  3.7113708671262906e+01  3.7056144637140797e+01  3.7000000000000000e+01  3.7832056030746088e+01  3.7829627870813617e+01  3.7822371297297117e+01  3.7810401063606861e+01  3.7793918341087839e+01  3.7771158016007796e+01  3.7740735259245461e+01  3.7703678127364320e+01  3.7661164231657281e+01  3.7614524092068812e+01  3.7565244034482625e+01  3.7513861654165588e+01  3.7460122391774007e+01  3.7404450209286445e+01  3.7347293560668930e+01  3.7289119825473264e+01  3.7230409859133673e+01  3.7171652648793156e+01  3.7113340069407208e+01  3.7055961741753556e+01  3.7000000000000000e+01  3.7823111472719788e+01  3.7820534893524652e+01  3.7812809772716491e+01  3.7799993633027107e+01  3.7782177138786203e+01  3.7758804151714934e+01  3.7728940522217648e+01  3.7693249375414126e+01  3.7652521637684259e+01  3.7607656940803551e+01  3.7559639324747181e+01  3.7509141260677538e+01  3.7456154514416468e+01  3.7401136632059874e+01  3.7344560716855071e+01  3.7286912595215938e+01  3.7228687234968923e+01  3.7170384706423235e+01  3.7112505874414708e+01  3.7055547950478640e+01  3.7000000000000000e+01  3.7811762622759275e+01  3.7809062657239757e+01  3.7800956047064076e+01  3.7787470497888940e+01  3.7768642438295075e+01  3.7744500401680632e+01  3.7715131219598824e+01  3.7680808151598491e+01  3.7641935314219921e+01  3.7598999707965419e+01  3.7552523008152164e+01  3.7503005331570876e+01  3.7450903426913868e+01  3.7396690910792749e+01  3.7340855603091043e+01  3.7283896293306213e+01  3.7226319209430812e+01  3.7168634216853867e+01  3.7111350810939605e+01  3.7054973977996497e+01  3.7000000000000000e+01  3.7800478349005452e+01  3.7797754570264907e+01  3.7789585996146776e+01  3.7776029553222386e+01  3.7757182079872820e+01  3.7733185175168735e+01  3.7704236595751020e+01  3.7670601814613448e+01  3.7632610734573753e+01  3.7590646709451342e+01  3.7545132284440456e+01  3.7496515386631977e+01  3.7445261006320777e+01  3.7391849987956810e+01  3.7336776772422304e+01  3.7280546419804089e+01  3.7223671156749447e+01  3.7166666604356230e+01  3.7110047798184375e+01  3.7054325088954762e+01  3.7000000000000000e+01  3.7790302219693523e+01  3.7787594407457590e+01  3.7779479934514924e+01  3.7766028344801704e+01  3.7747356402379950e+01  3.7723629252254163e+01  3.7695061708156594e+01  3.7661918518589324e+01  3.7624512248216519e+01  3.7583198973038350e+01  3.7538372603083616e+01  3.7490458833331957e+01  3.7439909621069802e+01  3.7387198484950190e+01  3.7332816146893705e+01  3.7277266278116528e+01  3.7221061244120101e+01  3.7164717813466147e+01  3.7108752832601127e+01  3.7053678889459107e+01  3.7000000000000000e+01  3.7781639687464654e+01  3.7778956503260908e+01  3.7770919431300818e+01  3.7757601133713514e+01  3.7739122689443228e+01  3.7715653250583962e+01  3.7687409266052661e+01  3.7654653040048153e+01  3.7617690444379839e+01  3.7576867793396922e+01  3.7532568047124997e+01  3.7485206584516355e+01  3.7435226776764146e+01  3.7383095501619771e+01  3.7329298636316729e+01  3.7274336533039389e+01  3.7218719476243592e+01  3.7162963126436843e+01  3.7107583962473043e+01  3.7053094741296640e+01  3.7000000000000000e+01  3.7774675274423792e+01  3.7772015951738148e+01  3.7764052664883344e+01  3.7750857288598851e+01  3.7732549966351812e+01  3.7709298621466274e+01  3.7681317807352883e+01  3.7648866921319211e+01  3.7612247821488417e+01  3.7571801904184127e+01  3.7527906719320256e+01  3.7480972214010443e+01  3.7431436693626424e+01  3.7379762575778898e+01  3.7326431994311243e+01  3.7271942296534192e+01  3.7216801468317207e+01  3.7161523516410512e+01  3.7106623833302123e+01  3.7052614565379258e+01  3.7000000000000000e+01  3.7769495328707777e+01  3.7766860486045992e+01  3.7758968305812957e+01  3.7745884392001976e+01  3.7727723783159419e+01  3.7704650639118320e+01  3.7676876619502330e+01  3.7644658586463649e+01  3.7608295870604287e+01  3.7568127187138700e+01  3.7524527240575296e+01  3.7477903047313376e+01  3.7428690008836313e+01  3.7377347772836586e+01  3.7324355922837171e+01  3.7270209538941465e+01  3.7215414673688670e+01  3.7160483787084232e+01  3.7105931181149849e+01  3.7052268459964253e+01  3.7000000000000000e+01  3.7766063859737798e+01  3.7763487814853832e+01  3.7755703867766691e+01  3.7742749047939803e+01  3.7724728166110673e+01  3.7701802628337695e+01  3.7674183977472055e+01  3.7642129540067444e+01  3.7605938897187151e+01  3.7565950562667801e+01  3.7522538583706378e+01  3.7476108944468031e+01  3.7427095736884652e+01  3.7375957105333434e+01  3.7323170994664281e+01  3.7269230745850770e+01  3.7214640598463504e+01  3.7159911182564962e+01  3.7105555127328486e+01  3.7052083003589274e+01  3.7000000000000000e+01  3.7763748799325825e+01  3.7761761751547937e+01  3.7754318442639963e+01  3.7741574760015595e+01  3.7723697531138583e+01  3.7700880739839590e+01  3.7673353119891296e+01  3.7641381055953346e+01  3.7605268829368271e+01  3.7565357280069072e+01  3.7522021460371569e+01  3.7475667600784284e+01  3.7426729574513999e+01  3.7375664975537376e+01  3.7322950883059157e+01  3.7269079354820477e+01  3.7214552660489389e+01  3.7159878221432216e+01  3.7105563145533935e+01  3.7052108101394062e+01  3.7000000000000000e+01  </DataArray> 
</PointData> 
</Piece>
</UnstructuredGrid>
</VTKFile>